|===============================================================================
|
|  DFTB+ development version (commit: 4393b121, base: 23.1)
|
|  Copyright (C) 2006 - 2023  DFTB+ developers group
|
|===============================================================================
|
|  When publishing results obtained with DFTB+, please cite the following
|  reference:
|
|  * DFTB+, a software package for efficient approximate density functional
|    theory based atomistic simulations, J. Chem. Phys. 152, 124101 (2020).
|    [doi: 10.1063/1.5143190]
|
|  You should also cite additional publications crediting the parametrization
|  data you use. Please consult the documentation of the SK-files for the
|  references.
|
|===============================================================================

Reading input file 'dftb_in.hsd'
[Debug] File 'dftb_in.hsd' opened (action='read')
[Debug] File 'geo.gen' opened (action='read')
[Debug] File 'geo.gen' closed
[Debug] File 'dftb_in.hsd' closed
Parser version: 14

--------------------------------------------------------------------------------
[Debug] File '/home/user/dftbplus_cam/external//slakos/origin/ob2-1-1/shift/C-C.skf' opened (action='read')
[Debug] File '/home/user/dftbplus_cam/external//slakos/origin/ob2-1-1/shift/C-C.skf' closed
Reading SK-files:
/home/user/dftbplus_cam/external//slakos/origin/ob2-1-1/shift/C-C.skf
[Debug] File '/home/user/dftbplus_cam/external//slakos/origin/ob2-1-1/shift/C-C.skf' opened (action='read')
[Debug] File '/home/user/dftbplus_cam/external//slakos/origin/ob2-1-1/shift/C-C.skf' closed
/home/user/dftbplus_cam/external//slakos/origin/ob2-1-1/shift/C-H.skf
[Debug] File '/home/user/dftbplus_cam/external//slakos/origin/ob2-1-1/shift/C-H.skf' opened (action='read')
[Debug] File '/home/user/dftbplus_cam/external//slakos/origin/ob2-1-1/shift/C-H.skf' closed
[Debug] File '/home/user/dftbplus_cam/external//slakos/origin/ob2-1-1/shift/H-C.skf' opened (action='read')
[Debug] File '/home/user/dftbplus_cam/external//slakos/origin/ob2-1-1/shift/H-C.skf' closed
/home/user/dftbplus_cam/external//slakos/origin/ob2-1-1/shift/H-H.skf
[Debug] File '/home/user/dftbplus_cam/external//slakos/origin/ob2-1-1/shift/H-H.skf' opened (action='read')
[Debug] File '/home/user/dftbplus_cam/external//slakos/origin/ob2-1-1/shift/H-H.skf' closed
Done.
WARNING!
-> Settings will be read but ignored (compiled without MPI support)
Path: dftbplusinput/Parallel
Line: 62-66 (File: dftb_in.hsd)

[Debug] File 'dftb_pin.hsd' opened (action='write')
[Debug] File 'dftb_pin.hsd' closed


Processed input in HSD format written to 'dftb_pin.hsd'

Starting initialization...
--------------------------------------------------------------------------------
WARNING!
-> Dipole printed for a charged system : origin dependent quantity
WARNING!
-> Dipole printed for extended system : value printed is not well defined
[Debug] File 'autotest.tag' opened (action='write')
[Debug] File 'autotest.tag' closed
[Debug] File 'results.tag' opened (action='write')
[Debug] File 'results.tag' closed
[Debug] File 'band.out' opened (action='write')
[Debug] File 'band.out' closed
[Debug] File 'detailed.out' opened (action='write')
[Debug] File 'detailed.out' closed
OpenMP threads:              1
Chosen random seed:          2109099236
Current stacksize:           8 [Mb] (recommended: unlimited)
WARNING!
-> Current stacksize not set to unlimited or hard limit, which might cause
   random crashes (e.g. segmentation faults). It is advised to unlimit the
   stacksize by issuing 'ulimit -s unlimited' (Linux) or setting it to the 
   hard limit by 'ulimit -s hard' (Mac) in advance.
Mode:                        Static calculation
Self consistent charges:     Yes
SCC-tolerance:                 0.100000E-07
Max. scc iterations:                    100
Shell resolved Hubbard:      No
Spin polarisation:           Yes
Initial nr. of up electrons:    15.000000
Initial Nr. of down electrons   13.000000
Periodic boundaries:         Yes
Electronic solver:           Relatively robust
Mixer:                       Broyden mixer
Mixing parameter:                  0.200000
Maximal SCC-cycles:                     100
Nr. of chrg. vec. in memory:            100
Electronic temperature:              0.100000E-07 H      0.272114E-06 eV
Initial charges:             Set automatically (system chrg:   0.200E+01)
Included shells:             C:  s, p
                             H:  s
K-points and weights:           1:  0.000000  0.000000  0.000000     0.083333
                                2:  0.000000  0.000000  0.500000     0.083333
                                3:  0.000000  0.500000  0.000000     0.083333
                                4:  0.000000  0.500000  0.500000     0.083333
                                5:  0.333333  0.000000  0.000000     0.166667
                                6:  0.333333  0.000000  0.500000     0.166667
                                7:  0.333333  0.500000  0.000000     0.166667
                                8:  0.333333  0.500000  0.500000     0.166667
 
K-points in absolute space:     1:  0.000000  0.000000  0.000000
                                2:  0.000000  0.000000  0.000265
                                3:  0.000000  0.000265  0.000000
                                4:  0.000000  0.000265  0.000265
                                5:  0.000176  0.000000  0.000000
                                6:  0.000176  0.000000  0.000265
                                7:  0.000176  0.000265  0.000000
                                8:  0.000176  0.000265  0.000265
 
Spin coupling constants:     C   1(s)-1(s):  -0.230000E-01
                             C   1(s)-2(p):  -0.230000E-01
                             C   2(p)-1(s):  -0.230000E-01
                             C   2(p)-2(p):  -0.230000E-01
                             H   1(s)-1(s):  -0.720000E-01
Long-range corrected hybrid: Yes
  Screening parameter omega:   0.300000E+00
  Gamma function:              truncated
  G-Summation Cutoff:          0.377945E+04 Bohr
  Coulomb Truncation:          0.188973E+04 Bohr
  Screening algorithm:         MatrixBased
Extra options:
                             Mulliken analysis

--------------------------------------------------------------------------------

***  Geometry step: 0

 iSCC Total electronic   Diff electronic      SCC error    
 nS           2
 nK           8
 nKS          16
[Debug] File 'band.out' opened (action='write')
[Debug] File 'band.out' closed
    1    0.00000000E+00    0.00000000E+00    0.58074648E+00
[Debug] File 'detailed.out' opened (action='write')
 nS           2
 nK           8
 nKS          16
[Debug] File 'band.out' opened (action='write')
[Debug] File 'band.out' closed
    2   -0.14029620E+02   -0.14029620E+02    0.20524940E-01
[Debug] File 'detailed.out' closed
[Debug] File 'detailed.out' opened (action='write')
 nS           2
 nK           8
 nKS          16
[Debug] File 'band.out' opened (action='write')
[Debug] File 'band.out' closed
    3   -0.14659631E+02   -0.63001011E+00    0.16719714E-01
[Debug] File 'detailed.out' closed
[Debug] File 'detailed.out' opened (action='write')
 nS           2
 nK           8
 nKS          16
[Debug] File 'band.out' opened (action='write')
[Debug] File 'band.out' closed
    4   -0.14660183E+02   -0.55233675E-03    0.15992552E-02
[Debug] File 'detailed.out' closed
[Debug] File 'detailed.out' opened (action='write')
 nS           2
 nK           8
 nKS          16
[Debug] File 'band.out' opened (action='write')
[Debug] File 'band.out' closed
    5   -0.14662613E+02   -0.24298362E-02    0.42891825E-03
[Debug] File 'detailed.out' closed
[Debug] File 'detailed.out' opened (action='write')
 nS           2
 nK           8
 nKS          16
[Debug] File 'band.out' opened (action='write')
[Debug] File 'band.out' closed
    6   -0.14662762E+02   -0.14921793E-03    0.17993881E-03
[Debug] File 'detailed.out' closed
[Debug] File 'detailed.out' opened (action='write')
 nS           2
 nK           8
 nKS          16
[Debug] File 'band.out' opened (action='write')
[Debug] File 'band.out' closed
    7   -0.14662800E+02   -0.38227664E-04    0.30067842E-05
[Debug] File 'detailed.out' closed
[Debug] File 'detailed.out' opened (action='write')
 nS           2
 nK           8
 nKS          16
[Debug] File 'band.out' opened (action='write')
[Debug] File 'band.out' closed
    8   -0.14662787E+02    0.13143026E-04    0.21579101E-05
[Debug] File 'detailed.out' closed
[Debug] File 'detailed.out' opened (action='write')
 nS           2
 nK           8
 nKS          16
[Debug] File 'band.out' opened (action='write')
[Debug] File 'band.out' closed
    9   -0.14662787E+02    0.49152618E-07    0.13689764E-06
[Debug] File 'detailed.out' closed
[Debug] File 'detailed.out' opened (action='write')
 nS           2
 nK           8
 nKS          16
[Debug] File 'band.out' opened (action='write')
[Debug] File 'band.out' closed
   10   -0.14662787E+02    0.50951916E-07    0.12783579E-06
[Debug] File 'detailed.out' closed
[Debug] File 'detailed.out' opened (action='write')
 nS           2
 nK           8
 nKS          16
[Debug] File 'band.out' opened (action='write')
[Debug] File 'band.out' closed
   11   -0.14662787E+02   -0.18186110E-08    0.86689749E-07
[Debug] File 'detailed.out' closed
[Debug] File 'detailed.out' opened (action='write')
 nS           2
 nK           8
 nKS          16
[Debug] File 'band.out' opened (action='write')
[Debug] File 'band.out' closed
   12   -0.14662787E+02    0.58610894E-09    0.52146970E-07
[Debug] File 'detailed.out' closed
[Debug] File 'detailed.out' opened (action='write')
 nS           2
 nK           8
 nKS          16
[Debug] File 'band.out' opened (action='write')
[Debug] File 'band.out' closed
   13   -0.14662787E+02    0.23051072E-09    0.53996469E-08
[Debug] File 'charges.bin' opened (action='write')
[Debug] File 'charges.bin' closed
>> Charges saved for restart in charges.bin
[Debug] File 'detailed.out' closed
[Debug] File 'detailed.out' opened (action='write')
[Debug] File 'detailed.out' closed
[Debug] File 'detailed.out' opened (action='write')
 
Hellmann Feynman dipole:     -0.00000000      0.00000000      0.00000627  au
 
Total Energy:                      -14.2438252346 H         -387.5942 eV
Extrapolated to 0K:                -14.2438252346 H         -387.5942 eV
Total Mermin free energy:          -14.2438252346 H         -387.5942 eV
Force related energy:              -14.2438252346 H         -387.5942 eV
 
[Debug] File 'detailed.out' closed
[Debug] File 'autotest.tag' opened (action='write')
[Debug] File 'autotest.tag' closed
[Debug] File 'results.tag' opened (action='write')
[Debug] File 'results.tag' closed
 
--------------------------------------------------------------------------------
DFTB+ running times                          cpu [s]             wall clock [s]
--------------------------------------------------------------------------------
Pre-SCC initialisation                 +       0.03 (  0.1%)       0.03 (  0.1%)
SCC                                    +      29.30 ( 99.9%)      29.33 ( 99.9%)
  Diagonalisation                             29.19 ( 99.5%)      29.22 ( 99.5%)
      Sparse to dense                          0.01 (  0.0%)       0.01 (  0.0%)
      Hybrid Hamiltonian                      29.14 ( 99.3%)      29.14 ( 99.3%)
  Density matrix creation                      0.01 (  0.0%)       0.01 (  0.0%)
--------------------------------------------------------------------------------
Missing                                +       0.01 (  0.0%)       0.01 (  0.0%)
Total                                  =      29.34 (100.0%)      29.36 (100.0%)
--------------------------------------------------------------------------------
